LAMMPS data file via write_data, version 11 Aug 2017, timestep = 100000

3000 atoms
2 atom types
2000 bonds
1 bond types
1000 angles
1 angle types

0.0000000000000000e+00 3.1504495000000002e+01 xlo xhi
0.0000000000000000e+00 3.1504495000000002e+01 ylo yhi
0.0000000000000000e+00 3.1504495000000002e+01 zlo zhi

Masses

1 1.00794
2 15.9994

#Pair Coeffs # lj/cut/tip4p/long/omp
#
#1 0 0
#2 0.1852 3.1589
#
#Bond Coeffs # harmonic/omp
#
#1 0 0.9572
#
#Angle Coeffs # harmonic/omp
#
#1 0 104.52

Atoms # full

394 132 2 -1.1128000000000000e+00 4.0275622475164212e+00 3.7316223880188706e+00 5.5076675612257286e+00 1 0 0
2451 817 1 5.5640000000000001e-01 2.9494932609140331e+01 2.5697412074147978e+00 6.0159205567787781e+00 -1 1 3
2449 817 2 -1.1128000000000000e+00 2.9071930511982245e+01 3.2436541544643793e+00 5.4838088982530309e+00 -1 1 3
2484 828 1 5.5640000000000001e-01 1.8331803198080570e+00 4.3889786367210526e-01 3.0474607821892064e+01 1 0 0
1255 419 2 -1.1128000000000000e+00 2.1049406971056945e+00 1.6065076807421508e+00 4.7012285729472385e+00 2 -1 3
862 288 2 -1.1128000000000000e+00 4.6196359175140476e+00 2.7744719572582270e+00 3.1274362151097773e+01 -2 1 -1
396 132 1 5.5640000000000001e-01 3.8302276408597784e+00 3.9070565938795347e+00 4.5876056900832660e+00 1 0 0
1257 419 1 5.5640000000000001e-01 1.3948898885975742e+00 2.2065945952157815e+00 4.4732845339533922e+00 2 -1 3
1256 419 1 5.5640000000000001e-01 2.7806462870749571e+00 2.1677225262569424e+00 5.0816135614395908e+00 2 -1 3
474 158 1 5.5640000000000001e-01 3.1482348205787869e+01 3.1071047965716629e+00 3.0352971349916054e+00 0 0 1
472 158 2 -1.1128000000000000e+00 8.9883029086061370e-02 3.4678030507695703e+00 3.9148357324158747e+00 1 0 1
2450 817 1 5.5640000000000001e-01 2.8461610805077694e+01 2.7611519621065832e+00 4.9261932754634019e+00 -1 1 3
745 249 2 -1.1128000000000000e+00 1.5762992123261835e-01 2.7505864318993063e+00 1.3540200984305615e+00 1 0 1
746 249 1 5.5640000000000001e-01 5.8340208436198260e-01 2.7692045365161424e+00 4.9692972444681976e-01 1 0 1
1838 613 1 5.5640000000000001e-01 5.6991948889871047e-01 3.1174850426166898e+01 3.2065368339731650e+00 1 -1 0
250 84 2 -1.1128000000000000e+00 4.6028280826489958e+00 1.0461834602688596e+00 7.1875863091101984e+00 0 3 1
251 84 1 5.5640000000000001e-01 3.9546892314255881e+00 4.1457127001994309e-01 6.8757939463465458e+00 0 3 1
252 84 1 5.5640000000000001e-01 4.2499209904105157e+00 1.8983544682133620e+00 6.9316695540596198e+00 0 3 1
2462 821 1 5.5640000000000001e-01 3.1295678489278247e+00 1.3915956962025706e+00 8.4784068948467972e+00 -2 1 0
864 288 1 5.5640000000000001e-01 4.0992855802347794e+00 1.9994188446164500e+00 3.1062793465386964e+01 -2 1 -1
473 158 1 5.5640000000000001e-01 3.0731628820804847e+01 3.3830125842787657e+00 4.3206774533978809e+00 0 0 1
1420 474 2 -1.1128000000000000e+00 6.8973197507463651e+00 1.2597800263509815e-01 6.4449902603613012e+00 0 -1 -1
1670 557 1 5.5640000000000001e-01 3.0304261751399695e+00 6.3285986078520665e-02 3.7053824352720590e+00 0 0 1
1669 557 2 -1.1128000000000000e+00 3.4047620438420849e+00 3.1121405946774701e+01 2.9458730158431541e+00 0 -1 1
1671 557 1 5.5640000000000001e-01 4.3280794671941578e+00 3.1002350251553583e+01 3.1684623908120444e+00 0 -1 1
863 288 1 5.5640000000000001e-01 5.4673677152860574e+00 2.6149700177883064e+00 3.0859462001769305e+01 -2 1 -1
2366 789 1 5.5640000000000001e-01 5.3546654560318423e+00 3.1348995179765087e+00 3.3004099175904771e+00 3 1 -1
2945 982 1 5.5640000000000001e-01 1.0423137528386043e+01 3.3709289412885695e+00 4.2528445529307231e+00 -2 2 2
2944 982 2 -1.1128000000000000e+00 1.0351515134248698e+01 2.4798959321310243e+00 4.5951356663512293e+00 -2 2 2
2946 982 1 5.5640000000000001e-01 9.5956605411025908e+00 2.1081751642899373e+00 4.1404442061363937e+00 -2 2 2
185 62 1 5.5640000000000001e-01 8.3527300040216321e+00 4.0458638400602140e+00 2.1769814936636984e+00 -1 3 0
2365 789 2 -1.1128000000000000e+00 6.1853615855205124e+00 2.7269353975801178e+00 3.5448306687990270e+00 3 1 -1
2367 789 1 5.5640000000000001e-01 6.7604518649995908e+00 3.4620676411723172e+00 3.7571606520576899e+00 3 1 -1
2097 699 1 5.5640000000000001e-01 6.0152325551051593e+00 2.9596661006944665e+01 4.0594153460134512e+00 -1 -1 2
2095 699 2 -1.1128000000000000e+00 6.0142719370619790e+00 3.0531536033935730e+01 3.8538912332262534e+00 -1 -1 2
2096 699 1 5.5640000000000001e-01 6.2280366470308977e+00 3.0959716427065480e+01 4.6828654803644367e+00 -1 -1 2
2882 961 1 5.5640000000000001e-01 1.0263573717416364e+01 4.8428941799750751e+00 2.8924765151450829e+00 0 1 -2
2881 961 2 -1.1128000000000000e+00 1.1036567780082477e+01 5.2958008856465444e+00 3.2295099996503116e+00 0 1 -2
2883 961 1 5.5640000000000001e-01 1.1675677234739643e+01 5.2409038847044043e+00 2.5190457877375398e+00 0 1 -2
299 100 1 5.5640000000000001e-01 8.1526724228498875e+00 3.1408234025553735e+01 3.2120599166512807e+00 2 0 -1
298 100 2 -1.1128000000000000e+00 8.4121930110321017e+00 8.1929913132218335e-01 3.3151883208641810e+00 2 1 -1
300 100 1 5.5640000000000001e-01 7.6513193458779307e+00 1.2408761790233329e+00 3.7146617435743963e+00 2 1 -1
194 65 1 5.5640000000000001e-01 6.7283765680257783e+00 5.0710554154487806e+00 6.2260187423547704e+00 1 0 -2
13 5 2 -1.1128000000000000e+00 8.8586726208995223e+00 2.3024731866589834e+00 9.0174822554585476e-01 1 -2 0
15 5 1 5.5640000000000001e-01 8.6436596568255464e+00 1.6282081007306757e+00 1.5462395375657592e+00 1 -2 0
1627 543 2 -1.1128000000000000e+00 1.4310506127236184e+01 4.0189485100967488e+00 4.5538726841268256e+00 1 2 -1
1628 543 1 5.5640000000000001e-01 1.4259025403976739e+01 4.1592696035362628e+00 5.4993322577327071e+00 1 2 -1
1629 543 1 5.5640000000000001e-01 1.4935277513268771e+01 3.3010283765094908e+00 4.4514764310955384e+00 1 2 -1
1598 533 1 5.5640000000000001e-01 1.2958119336085296e+01 7.0975575198908665e+00 4.5556318667663795e+00 0 -1 0
2920 974 2 -1.1128000000000000e+00 1.8828521939331377e+01 3.5826671850899738e+00 5.0627551389007737e+00 1 0 1
2921 974 1 5.5640000000000001e-01 1.9509703668165329e+01 3.0134992577580455e+00 4.7046032271864018e+00 1 0 1
2922 974 1 5.5640000000000001e-01 1.8993744888843338e+01 3.5907431785546513e+00 6.0055535128558750e+00 1 0 1
2702 901 1 5.5640000000000001e-01 1.6137993030644648e+01 5.7477793110660853e+00 4.4744562729873341e+00 0 2 0
2701 901 2 -1.1128000000000000e+00 1.5917977777112283e+01 6.5587847353429334e+00 4.9328189456617144e+00 0 2 0
1773 591 1 5.5640000000000001e-01 1.2842862967806303e+01 1.5417586385525621e+00 5.4634573420579473e+00 0 1 1
1771 591 2 -1.1128000000000000e+00 1.3023452105383065e+01 7.5372059330430530e-01 5.9759183705516570e+00 0 1 1
1772 591 1 5.5640000000000001e-01 1.2281664810744411e+01 1.7583518339117205e-01 5.7969331769607892e+00 0 1 1
1871 624 1 5.5640000000000001e-01 1.4971072223391358e+01 6.9501271567864773e+00 1.9721958020242716e+00 0 0 0
1872 624 1 5.5640000000000001e-01 1.6247887140607613e+01 6.1810563985099769e+00 2.2370937206376205e+00 0 0 0
44 15 1 5.5640000000000001e-01 1.8640598888995051e+01 5.6356355106113956e+00 3.0110440678647974e+00 -1 -1 1
45 15 1 5.5640000000000001e-01 1.7843548597673262e+01 4.4415442620691179e+00 3.4914109609590831e+00 -1 -1 1
1573 525 2 -1.1128000000000000e+00 1.8287946081275081e+01 1.0899782782917622e+00 6.1885797012555743e+00 0 1 1
1575 525 1 5.5640000000000001e-01 1.7595798571268428e+01 5.5919269463502397e-01 5.7943319501784964e+00 0 1 1
1574 525 1 5.5640000000000001e-01 1.9067926905395975e+01 8.9012782168077398e-01 5.6709669115412238e+00 0 1 1
868 290 2 -1.1128000000000000e+00 9.3949923506413793e+00 4.6153604962782939e+00 6.9848156806926047e+00 1 0 -2
870 290 1 5.5640000000000001e-01 9.1997571384365369e+00 5.5427892992756060e+00 6.8506806266407896e+00 1 0 -2
1571 524 1 5.5640000000000001e-01 1.6160865587398309e+01 1.3287054632718565e+00 4.6762259020029413e+00 -1 0 0
1572 524 1 5.5640000000000001e-01 1.7059787664381847e+01 2.5028840401061787e+00 4.3519739451746666e+00 -1 0 0
1570 524 2 -1.1128000000000000e+00 1.6269910835985872e+01 2.0500561080240627e+00 4.0565528663724661e+00 -1 0 0
888 296 1 5.5640000000000001e-01 1.3386804577960342e+01 5.3627142066732851e+00 2.8451860892740655e+00 1 0 -1
423 141 1 5.5640000000000001e-01 1.3359314290868124e+01 6.9693167139939520e+00 3.1082310302838380e+01 0 0 0
106 36 2 -1.1128000000000000e+00 2.0803290923315000e+01 6.3588918577742959e-02 5.9046278741010019e+00 -1 0 1
108 36 1 5.5640000000000001e-01 2.1438887777937662e+01 6.0371255344665298e-01 6.3742197934624585e+00 -1 0 1
317 106 1 5.5640000000000001e-01 1.6532567138224621e+01 2.9793274881603772e+01 1.9809813694707874e+00 0 -2 0
318 106 1 5.5640000000000001e-01 1.6612651346888946e+01 2.9824236311802448e+01 3.4924453432329363e+00 0 -2 0
316 106 2 -1.1128000000000000e+00 1.6508984712633268e+01 3.0391110274741663e+01 2.7281553830761975e+00 0 -2 0
959 320 1 5.5640000000000001e-01 2.1330267912689475e+01 3.1745104064552585e+00 7.0817543332488997e+00 1 -1 -1
958 320 2 -1.1128000000000000e+00 2.0674819765873981e+01 3.5111361597850443e+00 7.6927416701436071e+00 1 -1 -1
2673 891 1 5.5640000000000001e-01 2.1429915436419030e+01 2.5722678034343378e+00 3.5603922959482959e+00 0 1 0
2671 891 2 -1.1128000000000000e+00 2.0821726840298183e+01 1.8423762217414366e+00 3.6770172890366992e+00 0 1 0
107 36 1 5.5640000000000001e-01 2.1022384797701299e+01 1.8381035908593482e-01 4.9806263125963346e+00 -1 0 1
1535 512 1 5.5640000000000001e-01 1.9017224970181360e+01 3.4895554339939000e-01 1.0573520552794100e+00 -1 1 0
1534 512 2 -1.1128000000000000e+00 1.9202738769602998e+01 3.1177396668886686e+01 1.7090950987068207e+00 -1 0 0
2995 999 2 -1.1128000000000000e+00 1.8411877678798760e+01 1.9925447895663788e+00 5.8611823811921371e-02 0 2 1
1536 512 1 5.5640000000000001e-01 1.8404744146547220e+01 3.1125809562600907e+01 2.2351900922304342e+00 -1 0 0
896 299 1 5.5640000000000001e-01 2.0326846396530367e+01 5.6479260083549221e+00 4.0909162201929359e+00 0 2 -2
408 136 1 5.5640000000000001e-01 2.3703999389021554e+01 3.0390986564320812e+01 7.8696269744430791e-01 -1 -2 0
2672 891 1 5.5640000000000001e-01 2.0666330825620570e+01 1.5155451671779139e+00 2.7908646104709200e+00 0 1 0
448 150 2 -1.1128000000000000e+00 2.2737495302148997e+01 2.5398766256183580e+00 6.2417249829973827e+00 0 1 -1
2577 859 1 5.5640000000000001e-01 1.8802662523750673e+01 2.9551713235208712e+01 2.9564610012893731e+01 0 0 1
2997 999 1 5.5640000000000001e-01 1.8792856726603357e+01 2.8326859779641467e+00 3.1405788995594264e-01 0 2 1
1491 497 1 5.5640000000000001e-01 9.9969028174043550e-01 5.0331216358980733e+00 8.2685386181355938e+00 1 0 2
2109 703 1 5.5640000000000001e-01 2.8015197146735922e+01 5.0367851592649959e+00 3.0736878233838372e+00 2 0 0
2996 999 1 5.5640000000000001e-01 1.8667237585233043e+01 1.8817841165086391e+00 3.0647270639022434e+01 0 2 0
2830 944 2 -1.1128000000000000e+00 2.7257950639322424e+01 3.1252592720504158e+01 6.0083123465715707e+00 -1 0 3
2277 759 1 5.5640000000000001e-01 3.0184133739924309e+01 2.9921609022201341e+01 7.1674781987566201e+00 0 -1 -1
2276 759 1 5.5640000000000001e-01 3.1279952397603129e+01 3.0707956651171884e+01 7.8550355717175924e+00 0 -1 -1
2275 759 2 -1.1128000000000000e+00 3.0475955153711119e+01 3.0815424357322367e+01 7.3468314603151796e+00 0 -1 -1
2 1 1 5.5640000000000001e-01 2.8775117887233602e+01 1.2612025665473969e+00 1.2751727402914723e+00 -4 -2 1
1 1 2 -1.1128000000000000e+00 2.9426836772652337e+01 1.4851524331466850e+00 6.1083530031581612e-01 -4 -2 1
3 1 1 5.5640000000000001e-01 2.8913072818209322e+01 1.6836773810636958e+00 3.1332470703059403e+01 -4 -2 0
2645 882 1 5.5640000000000001e-01 2.6824381146966441e+01 1.2094618332776990e+00 5.0670883775229942e+00 -2 2 -1
2644 882 2 -1.1128000000000000e+00 2.6674759877598667e+01 1.9623878741571590e+00 4.4952907215628954e+00 -2 2 -1
2646 882 1 5.5640000000000001e-01 2.6823476628165551e+01 1.6259279884876925e+00 3.6115972857013925e+00 -2 2 -1
2107 703 2 -1.1128000000000000e+00 2.8511856912933954e+01 5.7775762982594410e+00 2.7261396857722597e+00 2 0 0
2108 703 1 5.5640000000000001e-01 2.8467648748840318e+01 6.4405625463492306e+00 3.4151471499532464e+00 2 0 0
1265 422 1 5.5640000000000001e-01 2.6438725670373547e+01 2.4448955353969786e+00 3.0672058399069989e+01 0 0 1
1266 422 1 5.5640000000000001e-01 2.6059558037774465e+01 3.8136478275353172e+00 3.1196129491491941e+01 0 0 1
1652 551 1 5.5640000000000001e-01 2.4131409962385202e+01 4.1719255960619721e+00 4.2277429782283962e+00 0 -1 1
1651 551 2 -1.1128000000000000e+00 2.4787634206951218e+01 4.3084062379277368e+00 4.9111006138239492e+00 0 -1 1
1590 530 1 5.5640000000000001e-01 2.5495716757341288e+01 5.7621071980616509e+00 5.5037477663835999e+00 0 -1 1
2229 743 1 5.5640000000000001e-01 2.2370085586698664e+01 4.5480965285352859e+00 2.9872946649209253e+00 0 2 2
1653 551 1 5.5640000000000001e-01 2.5239698351519944e+01 3.4675872248386770e+00 4.9810705731152529e+00 0 -1 1
507 169 1 5.5640000000000001e-01 2.6388443153548025e+01 1.9307029865476073e+00 1.2429003690135574e+00 1 1 -1
1264 422 2 -1.1128000000000000e+00 2.5955732384397848e+01 2.8790963730156092e+00 3.1375208869269432e+01 0 0 1
747 249 1 5.5640000000000001e-01 3.0809527171923143e+01 2.3476921596686453e+00 1.1897450680822281e+00 0 0 1
1059 353 1 5.5640000000000001e-01 3.8605960951579137e+00 3.2829400844394137e+00 1.7530392325188020e+00 -2 0 2
1057 353 2 -1.1128000000000000e+00 3.9442843222718325e+00 3.9787040903080313e+00 2.4050688285604420e+00 -2 0 2
595 199 2 -1.1128000000000000e+00 4.3103472794442137e+00 7.8822451349107387e+00 4.5373614201583345e+00 1 0 0
1058 353 1 5.5640000000000001e-01 3.0892647058646090e+00 4.4090194952359170e+00 2.4079394385164137e+00 -2 0 2
1997 666 1 5.5640000000000001e-01 2.2549270818338019e+00 1.0261618322438409e+01 3.7897589927883844e+00 0 0 0
2757 919 1 5.5640000000000001e-01 2.3468254743785573e+00 6.3005457354439329e+00 5.5552150005046110e+00 1 1 0
604 202 2 -1.1128000000000000e+00 3.0951439998328791e+01 1.2654937361814641e+01 2.8072931788382269e+00 -1 1 0
158 53 1 5.5640000000000001e-01 9.8956605186518569e+00 8.5981004031230803e+00 2.7851415120066152e+00 -1 0 1
2698 900 2 -1.1128000000000000e+00 6.8367840952675385e+00 9.1925493352365155e+00 5.0330409996353458e+00 1 1 0
914 305 1 5.5640000000000001e-01 1.4115904210805549e-01 1.4889943747451843e+01 5.0030283869555241e+00 1 -2 1
1998 666 1 5.5640000000000001e-01 1.0244436459466510e+00 9.4316256457304757e+00 3.4915664697262474e+00 0 0 0
1996 666 2 -1.1128000000000000e+00 1.6481363649347438e+00 1.0033559262250227e+01 3.0854669573220637e+00 0 0 0
1645 549 2 -1.1128000000000000e+00 1.5260545563714318e+00 5.2586978122896166e+00 2.3687890707459780e+00 -1 1 -1
1646 549 1 5.5640000000000001e-01 1.3008053864918530e+00 5.9737435345690093e+00 2.9639415713069073e+00 -1 1 -1
596 199 1 5.5640000000000001e-01 5.1516625836912109e+00 8.1299191126965553e+00 4.9208715265323058e+00 1 0 0
159 53 1 5.5640000000000001e-01 9.8155937738562624e+00 9.9819669976452374e+00 3.3937459113837503e+00 -1 0 1
157 53 2 -1.1128000000000000e+00 9.4463039964437794e+00 9.1016610758011272e+00 3.4639196424406760e+00 -1 0 1
480 160 1 5.5640000000000001e-01 2.4077067642978491e+00 1.1107831326298937e+01 6.0498692844129636e+00 0 1 1
606 202 1 5.5640000000000001e-01 3.6774484225331067e-01 1.2525737231323546e+01 2.5799872108262303e+00 0 1 0
2700 900 1 5.5640000000000001e-01 7.2248448049324159e+00 9.7995796588470068e+00 4.4028380819384525e+00 1 1 0
2699 900 1 5.5640000000000001e-01 6.8675875892438922e+00 9.6606496605851451e+00 5.8674067673622377e+00 1 1 0
1647 549 1 5.5640000000000001e-01 1.0163234329748965e+00 4.5130706470839828e+00 2.6857311252449230e+00 -1 1 -1
597 199 1 5.5640000000000001e-01 4.5389950731397146e+00 7.4612290437476103e+00 3.7086882083796144e+00 1 0 0
186 62 1 5.5640000000000001e-01 8.1937096295307068e+00 5.4298292440545293e+00 2.7696429078325120e+00 -1 3 0
184 62 2 -1.1128000000000000e+00 8.5091389233935466e+00 4.5498690747492363e+00 2.9755722299335883e+00 -1 3 0
1458 486 1 5.5640000000000001e-01 6.4421468493788314e+00 6.7597183510486607e+00 1.8593465424526143e+00 0 0 1
1456 486 2 -1.1128000000000000e+00 7.3669043942257133e+00 7.0032349461530838e+00 1.8174002220742158e+00 0 0 1
1457 486 1 5.5640000000000001e-01 7.4153556286553002e+00 7.8416683629200303e+00 2.2766544069249104e+00 0 0 1
766 256 2 -1.1128000000000000e+00 7.0183045727674420e+00 7.0437973985878015e+00 6.6795522391601896e+00 -1 0 0
767 256 1 5.5640000000000001e-01 7.0508578762854253e+00 7.0811852351711195e+00 7.6354681818443533e+00 -1 0 0
1597 533 2 -1.1128000000000000e+00 1.3531180686702442e+01 7.0658705439804415e+00 3.7895845357943552e+00 0 -1 0
1599 533 1 5.5640000000000001e-01 1.4363752353261875e+01 6.7346316879337902e+00 4.1262412312032328e+00 0 -1 0
525 175 1 5.5640000000000001e-01 1.1174984424629704e+01 8.2702046787149435e+00 8.2757654517833767e-01 1 1 0
2500 834 2 -1.1128000000000000e+00 1.0823948589005113e+01 1.1352493513229485e+01 3.8738823946164054e+00 -1 -1 0
2502 834 1 5.5640000000000001e-01 1.0078176391027034e+01 1.1944319282558732e+01 3.7748893694624965e+00 -1 -1 0
1918 640 2 -1.1128000000000000e+00 1.0283954309400121e+01 6.9736099568866026e+00 5.1404297642517163e+00 -1 0 -1
1920 640 1 5.5640000000000001e-01 1.0001771912826566e+01 7.7425810167791704e+00 4.6451631665298807e+00 -1 0 -1
1919 640 1 5.5640000000000001e-01 1.0647302593077576e+01 6.3831483039838846e+00 4.4804559138383375e+00 -1 0 -1
768 256 1 5.5640000000000001e-01 7.3106533088099521e+00 7.9098399789726415e+00 6.3954135324972192e+00 -1 0 0
2501 834 1 5.5640000000000001e-01 1.0882400540883202e+01 1.1195644719245919e+01 4.8163335883920189e+00 -1 -1 0
1040 347 1 5.5640000000000001e-01 1.3068409025549077e+01 9.6824315000259205e+00 1.7209073760821969e+00 1 0 0
1039 347 2 -1.1128000000000000e+00 1.2472768765448979e+01 8.9436736975164628e+00 1.8461339775941268e+00 1 0 0
1041 347 1 5.5640000000000001e-01 1.2848960821484189e+01 8.4533108975227229e+00 2.5770627598552522e+00 1 0 0
476 159 1 5.5640000000000001e-01 7.3331900384263617e+00 1.1205334028594098e+01 3.1227091729301538e+01 -2 1 0
1384 462 2 -1.1128000000000000e+00 1.4780942834417155e+01 1.0246701914251002e+01 3.7683690332883928e+00 -1 1 1
1385 462 1 5.5640000000000001e-01 1.4211690963028934e+01 9.6131778776349464e+00 4.2052119209578276e+00 -1 1 1
1612 538 2 -1.1128000000000000e+00 1.3445904948612016e+01 1.2348373808321206e+01 2.7474681840670558e+00 0 1 0
1613 538 1 5.5640000000000001e-01 1.3845752180311518e+01 1.1537508664741308e+01 3.0618764738519113e+00 0 1 0
1386 462 1 5.5640000000000001e-01 1.5615017397028186e+01 9.7885837908955793e+00 3.6650235024798170e+00 -1 1 1
2327 776 1 5.5640000000000001e-01 1.8765635236800659e+01 7.9643658118776486e+00 4.2434699880892079e+00 1 0 0
2326 776 2 -1.1128000000000000e+00 1.8653326981450903e+01 7.5258592777193050e+00 5.0868744445825014e+00 1 0 0
2328 776 1 5.5640000000000001e-01 1.7723442288216663e+01 7.3010371748701388e+00 5.1185266980566340e+00 1 0 0
1870 624 2 -1.1128000000000000e+00 1.5916573274675711e+01 6.9794207627717864e+00 1.8259021754250693e+00 0 0 0
2435 812 1 5.5640000000000001e-01 1.7010217627987114e+01 1.2036067583660962e+01 7.6246988825533260e+00 -1 0 2
2054 685 1 5.5640000000000001e-01 1.7032647241713534e+01 8.1669125559378291e+00 2.5043125311539645e+00 1 0 2
2053 685 2 -1.1128000000000000e+00 1.7523527190557342e+01 8.9010791386625581e+00 2.8734583316102298e+00 1 0 2
2055 685 1 5.5640000000000001e-01 1.8055293250026530e+01 9.2241542004846195e+00 2.1460798951146676e+00 1 0 2
1510 504 2 -1.1128000000000000e+00 1.8384069732446811e+01 1.0106207185215164e+01 4.4715552049628865e-01 1 0 0
1512 504 1 5.5640000000000001e-01 1.7746760558309205e+01 1.0588159656249211e+01 3.1424591297999353e+01 1 0 -1
1511 504 1 5.5640000000000001e-01 1.8650791745301241e+01 9.3741655909095147e+00 3.1395586773451530e+01 1 0 -1
43 15 2 -1.1128000000000000e+00 1.7757061395023829e+01 5.2674297666097241e+00 3.0153170615124623e+00 -1 -1 1
895 299 2 -1.1128000000000000e+00 2.0425103897748560e+01 5.3856862692942435e+00 3.1755975135416574e+00 0 2 -2
2265 755 1 5.5640000000000001e-01 1.9839599660615217e+01 1.0358377843536035e+01 2.0154000524370508e+00 -1 0 1
897 299 1 5.5640000000000001e-01 2.0482846961580663e+01 6.2110985757657486e+00 2.6943474187237051e+00 0 2 -2
2236 746 2 -1.1128000000000000e+00 2.0586923954993413e+01 7.5305149900111941e+00 1.4783483252195166e+00 -1 2 3
2238 746 1 5.5640000000000001e-01 2.0263288282808066e+01 7.5550246598979243e+00 5.7785295217687394e-01 -1 2 3
275 92 1 5.5640000000000001e-01 2.0304869357644950e+01 8.6115302523826411e+00 2.9277635840933780e+01 -1 2 -1
274 92 2 -1.1128000000000000e+00 1.9767914597943079e+01 8.4874676298738851e+00 3.0060273627652304e+01 -1 2 -1
4 2 2 -1.1128000000000000e+00 2.4942780322738169e+01 1.0600125431266219e+01 3.9264261871867538e+00 -1 2 -1
276 92 1 5.5640000000000001e-01 1.9303726758570647e+01 7.6648927806417895e+00 2.9904922141473392e+01 -1 2 -1
373 125 2 -1.1128000000000000e+00 2.3451328944368402e+01 6.6429459847402672e+00 7.5924875994404828e-01 0 -1 0
374 125 1 5.5640000000000001e-01 2.2570724647891094e+01 7.0169093423596234e+00 7.2890947765641423e-01 0 -1 0
375 125 1 5.5640000000000001e-01 2.3308902980271391e+01 5.6996794130227402e+00 8.3796976077859153e-01 0 -1 0
2264 755 1 5.5640000000000001e-01 2.1351854962881696e+01 1.0338872687900842e+01 1.9475860433326715e+00 -1 0 1
2263 755 2 -1.1128000000000000e+00 2.0614848492460929e+01 1.0059910175924331e+01 2.4909401554189907e+00 -1 0 1
2237 746 1 5.5640000000000001e-01 2.0449449766588486e+01 8.4189412595360480e+00 1.8070354435219986e+00 -1 2 3
5 2 1 5.5640000000000001e-01 2.5195085488606999e+01 9.9841881161152344e+00 3.2385335606953349e+00 -1 2 -1
1971 657 1 5.5640000000000001e-01 2.4347173449481758e+01 8.0782904219290490e+00 1.6394055996488093e+00 0 1 0
1068 356 1 5.5640000000000001e-01 2.1724090170143086e+01 1.3933644110411743e+01 1.8046081157155862e+00 -1 0 1
1969 657 2 -1.1128000000000000e+00 2.4603589707465265e+01 8.9995437109827545e+00 1.5972417720701366e+00 0 1 0
1387 463 2 -1.1128000000000000e+00 2.2790113170327643e+01 1.1047257045007052e+01 9.4249369037720809e-01 -1 -1 0
1388 463 1 5.5640000000000001e-01 2.3495894764031938e+01 1.0582402009509094e+01 1.3919572566775738e+00 -1 -1 0
1389 463 1 5.5640000000000001e-01 2.2749234561594772e+01 1.0641873270933683e+01 7.6336495664652351e-02 -1 -1 0
6 2 1 5.5640000000000001e-01 2.4149186070644909e+01 1.1019441122421288e+01 3.5938383346774176e+00 -1 2 -1
605 202 1 5.5640000000000001e-01 3.0695600685962404e+01 1.1842202825792876e+01 3.2434621124327587e+00 -1 1 0
2763 921 1 5.5640000000000001e-01 3.0226107331001838e+01 1.0157311746324945e+01 4.3308140624465139e+00 -2 2 0
2761 921 2 -1.1128000000000000e+00 2.9544543776288876e+01 1.0518411359783691e+01 3.7639703488060121e+00 -2 2 0
2227 743 2 -1.1128000000000000e+00 2.2766162181730298e+01 3.6813713901586054e+00 3.0775396865798208e+00 0 2 2
541 181 2 -1.1128000000000000e+00 3.1280029004783341e+01 8.6985585033956720e+00 4.6041679985485153e+00 -3 -1 -2
542 181 1 5.5640000000000001e-01 3.2647316325493364e-01 8.0241373033936032e+00 5.0014837823977283e+00 -2 -1 -2
915 305 1 5.5640000000000001e-01 3.0936686867046774e+01 1.3649663497634277e+01 4.5020635704958787e+00 0 -2 1
479 160 1 5.5640000000000001e-01 1.5606181665877574e+00 1.2204183319943249e+01 6.6600766165870882e+00 0 1 1
478 160 2 -1.1128000000000000e+00 1.8756361127342258e+00 1.1314265674614013e+01 6.8183238259275969e+00 0 1 1
672 224 1 5.5640000000000001e-01 2.6350849475563798e+01 1.1539621522866851e+01 4.3803310191861282e+00 -1 -1 -1
670 224 2 -1.1128000000000000e+00 2.7014551654322737e+01 1.2139459672626987e+01 4.7208098679455288e+00 -1 -1 -1
2324 775 1 5.5640000000000001e-01 2.8593121940733379e+01 7.7833245168941296e+00 5.6033646132471251e+00 0 -3 0
2323 775 2 -1.1128000000000000e+00 2.8223390074651288e+01 7.6417771875452178e+00 4.7318741720011754e+00 0 -3 0
2325 775 1 5.5640000000000001e-01 2.7364587190749468e+01 7.2521836688888195e+00 4.8959132837997670e+00 0 -3 0
913 305 2 -1.1128000000000000e+00 3.0842520338988141e+01 1.4380826125529586e+01 5.1126092627551749e+00 0 -2 1
543 181 1 5.5640000000000001e-01 3.0565816611499010e+01 8.2127404603980985e+00 4.1917182329837397e+00 -3 -1 -2
1970 657 1 5.5640000000000001e-01 2.5234339988433600e+01 9.0404343609150928e+00 8.7841215690881547e-01 0 1 0
1116 372 1 5.5640000000000001e-01 2.8681375301662523e+01 1.0073432268907826e+01 1.5928448543668809e+00 -2 0 -2
2762 921 1 5.5640000000000001e-01 2.8914891580362330e+01 1.0913143793453157e+01 4.3672584414812929e+00 -2 2 0
2228 743 1 5.5640000000000001e-01 2.2942867080788435e+01 3.4035014795933183e+00 2.1787650192867121e+00 0 2 2
2651 884 1 5.5640000000000001e-01 3.1502911153118625e+01 5.6947859813991757e+00 1.1765792643105100e+00 1 3 1
1114 372 2 -1.1128000000000000e+00 2.8156067766045037e+01 9.9837238025564066e+00 7.9771142385843319e-01 -2 0 -2
1115 372 1 5.5640000000000001e-01 2.7711406180172393e+01 1.0826556942279215e+01 7.0748662301394338e-01 -2 0 -2
537 179 1 5.5640000000000001e-01 2.5915922835801237e+00 1.5267677866225396e+01 4.5629299617975914e+00 0 4 1
535 179 2 -1.1128000000000000e+00 1.7376621201103011e+00 1.5602710792940782e+01 4.8364051161393098e+00 0 4 1
1769 590 1 5.5640000000000001e-01 4.9125095619646224e+00 1.4203644151218011e+01 3.9535596368935497e+00 0 1 1
536 179 1 5.5640000000000001e-01 1.7998550658436605e+00 1.5669086444250457e+01 5.7892736642540870e+00 0 4 1
2487 829 1 5.5640000000000001e-01 7.8633040905396578e+00 1.3130172235966052e+01 3.6561344783451259e+00 2 -1 3
1503 501 1 5.5640000000000001e-01 2.1156150782442484e+00 1.9104978274639368e+01 2.9786066052630122e+01 -1 1 0
1501 501 2 -1.1128000000000000e+00 2.4864101463640607e+00 1.9885596859342918e+01 3.0197621894025424e+01 -1 1 0
1502 501 1 5.5640000000000001e-01 3.0936245095318147e+00 1.9545086315080088e+01 3.0854569763757354e+01 -1 1 0
2320 774 2 -1.1128000000000000e+00 2.6162987861136737e+00 2.2984364975749813e+01 2.6055941229051025e+00 1 1 1
1768 590 2 -1.1128000000000000e+00 4.1388483659883910e+00 1.4765118697757483e+01 3.9042959128012220e+00 0 1 1
1770 590 1 5.5640000000000001e-01 4.3166378841351980e+00 1.5354943780227201e+01 3.1716750869176087e+00 0 1 1
2322 774 1 5.5640000000000001e-01 2.0915730958882750e+00 2.3294782713222343e+01 1.8676674265190700e+00 1 1 1
2321 774 1 5.5640000000000001e-01 2.3938865269063592e+00 2.2056740908158869e+01 2.6848299540892233e+00 1 1 1
2485 829 2 -1.1128000000000000e+00 8.2539608202997954e+00 1.2509654064765400e+01 3.0408482470088369e+00 2 -1 3
2486 829 1 5.5640000000000001e-01 8.3544759722476041e+00 1.3007336921757485e+01 2.2294048534690867e+00 2 -1 3
172 58 2 -1.1128000000000000e+00 6.1863154428961742e-01 1.8571501641487355e+01 3.3996032542474661e+00 1 1 0
173 58 1 5.5640000000000001e-01 9.2531459414283113e-01 1.7669059871281306e+01 3.3114151218933698e+00 1 1 0
2569 857 2 -1.1128000000000000e+00 5.6902872463389431e-01 2.0030308374339757e+01 1.0109379105855525e+00 1 2 -1
549 183 1 5.5640000000000001e-01 2.6563307088143659e+00 1.3740055301532637e+01 2.1906319735799062e+00 1 1 2
547 183 2 -1.1128000000000000e+00 1.8968511935673296e+00 1.3994237192643105e+01 1.6664041654916484e+00 1 1 2
174 58 1 5.5640000000000001e-01 3.1265126918126192e+01 1.8493704580743540e+01 3.8167590362366086e+00 0 1 0
347 116 1 5.5640000000000001e-01 7.5805942068851662e-01 1.2572537978198218e+01 2.5774623500072125e-01 2 -1 2
348 116 1 5.5640000000000001e-01 8.1247136025083344e-01 1.1450250346871115e+01 3.0747644837860978e+01 2 -1 1
346 116 2 -1.1128000000000000e+00 1.2691951190106032e+00 1.1803135061029925e+01 6.7652137499578657e-03 2 -1 2
1730 577 1 5.5640000000000001e-01 2.7164802666792123e+00 1.3858907128805528e+01 3.1150075252951716e+01 1 2 -1
548 183 1 5.5640000000000001e-01 1.8876995745982430e+00 1.4950610070912250e+01 1.7051830181410754e+00 1 1 2
2297 766 1 5.5640000000000001e-01 4.3735259836252700e+00 1.7122989318695470e+01 1.6143558035615024e+00 2 0 0
784 262 2 -1.1128000000000000e+00 1.0817991401799285e+01 1.5027772528186283e+01 3.6958707230028125e+00 0 2 -2
785 262 1 5.5640000000000001e-01 1.0189377120097936e+01 1.4405784861220278e+01 3.3295272210521247e+00 0 2 -2
786 262 1 5.5640000000000001e-01 1.1283097493433928e+01 1.4530692077497054e+01 4.3687924525582771e+00 0 2 -2
2296 766 2 -1.1128000000000000e+00 4.1492717695109747e+00 1.6203554573781943e+01 1.4708914228271390e+00 2 0 0
2298 766 1 5.5640000000000001e-01 4.2847708744934589e+00 1.6066970571777802e+01 5.3322572734332663e-01 2 0 0
899 300 1 5.5640000000000001e-01 1.2917018360170879e+01 1.3170207303251544e+01 6.1312050596363648e+00 1 0 2
900 300 1 5.5640000000000001e-01 1.3226371836155884e+01 1.4311497377286450e+01 5.1858725755265205e+00 1 0 2
898 300 2 -1.1128000000000000e+00 1.2498177813293323e+01 1.3834332260268827e+01 5.5837158762821542e+00 1 0 2
1030 344 2 -1.1128000000000000e+00 1.2653960846263548e+01 1.4821363835390533e+01 1.5062238951610263e+00 -1 0 0
1375 459 2 -1.1128000000000000e+00 1.0874706466147241e+01 2.0373782158830551e+01 5.0064994107440670e+00 3 1 -1
1032 344 1 5.5640000000000001e-01 1.2116038638005865e+01 1.4666945109849088e+01 2.2827725119519919e+00 -1 0 0
1349 450 1 5.5640000000000001e-01 8.4001918025519817e+00 1.5516011581697061e+01 1.0037569403946913e+00 0 -1 0
1348 450 2 -1.1128000000000000e+00 9.1054010381224302e+00 1.4869053387927384e+01 1.0226694112834933e+00 0 -1 0
1377 459 1 5.5640000000000001e-01 1.0274926404866049e+01 2.0139732170927971e+01 4.2981795883193366e+00 3 1 -1
1376 459 1 5.5640000000000001e-01 1.1301621542346288e+01 1.9549929993735887e+01 5.2415383578769088e+00 3 1 -1
1781 594 1 5.5640000000000001e-01 9.9223734984238128e+00 1.2902549324040786e+01 6.6428489701363649e+00 -1 3 1
1780 594 2 -1.1128000000000000e+00 9.8382137438241735e+00 1.3716838575414702e+01 7.1389179982553754e+00 -1 3 1
1541 514 1 5.5640000000000001e-01 5.1755726952371237e+00 1.7757586820073993e+01 6.4284048583476148e+00 0 1 0
2649 883 1 5.5640000000000001e-01 3.3075808849023489e+00 2.0124965173719744e+01 4.5958521134581520e+00 -1 0 2